Molécula de agua - Orbitales Moleculares                               
SP        RHF                                                         6-31G(d)
Number of atoms                            I                3
Charge                                     I                0
Multiplicity                               I                1
Number of electrons                        I               10
Number of alpha electrons                  I                5
Number of beta electrons                   I                5
Number of basis functions                  I               19
Number of independant functions            I               19
Number of contracted shells                I                8
Highest angular momentum                   I                2
Largest degree of contraction              I                6
Number of primitive shells                 I               19
Viriral Ratio                              R      2.002540948686416E+00
SCF Energy                                 R     -7.601049471694569E+01
Total Energy                               R     -7.601049471694569E+01
RMS Density                                R      3.064534771320693E-05
Atomic numbers                             I   N=           3
           8           1           1
Nuclear charges                            R   N=           3
  8.00000000E+00  1.00000000E+00  1.00000000E+00
Current cartesian coordinates              R   N=           9
  1.66086754E-33 -1.36495053E-33  2.21475886E-01 -1.09196042E-32  1.43241230E+00
 -8.85903543E-01 -1.75414120E-16 -1.43241230E+00 -8.85903543E-01
Atom types                                 I   N=           3
           0           0           0
Force Field                                I                0
MM charges                                 R   N=           3
  0.00000000E+00  0.00000000E+00  0.00000000E+00
ONIOM Charges                              I   N=           4
           0           0           0           0
ONIOM Multiplicities                       I   N=           4
           1           0           0           0
Atom Layers                                I   N=           3
           1           1           1
Atom Modifiers                             I   N=           3
           0           0           0
Atom types                                 I   N=           3
           0           0           0
Link Atoms                                 I   N=           3
           0           0           0
Atom Modified MM Charges                   R   N=           3
  0.00000000E+00  0.00000000E+00  0.00000000E+00
Link Distances                             R   N=           3
  0.00000000E+00  0.00000000E+00  0.00000000E+00
MxBond                                     I                2
NBond                                      I   N=           3
           2           1           1
IBond                                      I   N=           6
           2           3           1           0           1           0
RBond                                      R   N=           6
  1.00000000E+00  1.00000000E+00  1.00000000E+00  0.00000000E+00  1.00000000E+00
  0.00000000E+00
Shell types                                I   N=           8
           0          -1          -1           2           0           0
           0           0
Number of primitives per shell             I   N=           8
           6           3           1           1           3           1
           3           1
Shell to atom map                          I   N=           8
           1           1           1           1           2           2
           3           3
Primitive exponents                        R   N=          19
  5.48467166E+03  8.25234946E+02  1.88046958E+02  5.29645000E+01  1.68975704E+01
  5.79963534E+00  1.55396162E+01  3.59993359E+00  1.01376175E+00  2.70005823E-01
  8.00000000E-01  1.87311370E+01  2.82539436E+00  6.40121692E-01  1.61277759E-01
  1.87311370E+01  2.82539436E+00  6.40121692E-01  1.61277759E-01
Contraction coefficients                   R   N=          19
  1.83107443E-03  1.39501722E-02  6.84450781E-02  2.32714336E-01  4.70192898E-01
  3.58520853E-01 -1.10777550E-01 -1.48026263E-01  1.13076702E+00  1.00000000E+00
  1.00000000E+00  3.34946043E-02  2.34726953E-01  8.13757326E-01  1.00000000E+00
  3.34946043E-02  2.34726953E-01  8.13757326E-01  1.00000000E+00
P(S=P) Contraction coefficients            R   N=          19
  0.00000000E+00  0.00000000E+00  0.00000000E+00  0.00000000E+00  0.00000000E+00
  0.00000000E+00  7.08742682E-02  3.39752839E-01  7.27158577E-01  1.00000000E+00
  0.00000000E+00  0.00000000E+00  0.00000000E+00  0.00000000E+00  0.00000000E+00
  0.00000000E+00  0.00000000E+00  0.00000000E+00  0.00000000E+00
Coordinates of each shell                  R   N=          24
  1.66086754E-33 -1.36495053E-33  2.21475886E-01  1.66086754E-33 -1.36495053E-33
  2.21475886E-01  1.66086754E-33 -1.36495053E-33  2.21475886E-01  1.66086754E-33
 -1.36495053E-33  2.21475886E-01 -1.09196042E-32  1.43241230E+00 -8.85903543E-01
 -1.09196042E-32  1.43241230E+00 -8.85903543E-01 -1.75414120E-16 -1.43241230E+00
 -8.85903543E-01 -1.75414120E-16 -1.43241230E+00 -8.85903543E-01
Alpha Orbital Energies                     R   N=          19
 -2.05605042E+01 -1.34128032E+00 -7.06608109E-01 -5.70642768E-01 -4.97821592E-01
  2.10576493E-01  3.03908846E-01  1.02257366E+00  1.13141653E+00  1.16780793E+00
  1.17061179E+00  1.38060057E+00  1.43372930E+00  2.02055900E+00  2.03394237E+00
  2.06803115E+00  2.62125274E+00  2.94581996E+00  3.97025226E+00
Alpha MO coefficients                      R   N=         361
  9.94638539E-01  2.11379126E-02  0.00000000E+00  0.00000000E+00 -1.33543228E-03
  4.08471998E-03  0.00000000E+00  0.00000000E+00  4.72123341E-04 -3.91197349E-03
 -4.19488615E-03 -4.07075545E-03  0.00000000E+00  0.00000000E+00  0.00000000E+00
  3.31966692E-04 -1.95335045E-04  3.31966692E-04 -1.95335045E-04 -2.09717531E-01
  4.75913747E-01  0.00000000E+00  0.00000000E+00 -9.28701016E-02  4.39745884E-01
  0.00000000E+00  0.00000000E+00 -5.07455590E-02 -1.23735582E-03  2.63672064E-02
  2.13489044E-02  0.00000000E+00  0.00000000E+00  0.00000000E+00  1.30803238E-01
  2.01609256E-03  1.30803238E-01  2.01609256E-03  0.00000000E+00  0.00000000E+00
  0.00000000E+00  5.07473835E-01  0.00000000E+00  0.00000000E+00  0.00000000E+00
  3.06664826E-01  0.00000000E+00  0.00000000E+00  0.00000000E+00  0.00000000E+00
  0.00000000E+00  0.00000000E+00 -5.11181426E-02  2.30873686E-01  1.10931181E-01
 -2.30873686E-01 -1.10931181E-01 -7.32771655E-02  1.64428780E-01  0.00000000E+00
  0.00000000E+00  5.55318343E-01  3.25244471E-01  0.00000000E+00  0.00000000E+00
  4.03346145E-01  1.18316370E-02  1.62681579E-04 -4.62977601E-02  0.00000000E+00
  0.00000000E+00  0.00000000E+00 -1.41386238E-01 -8.58668862E-02 -1.41386238E-01
 -8.58668862E-02  0.00000000E+00  0.00000000E+00  6.39640257E-01  0.00000000E+00
  0.00000000E+00  0.00000000E+00  5.11446415E-01  0.00000000E+00  0.00000000E+00
  0.00000000E+00  0.00000000E+00  0.00000000E+00  0.00000000E+00 -3.38560434E-02
  0.00000000E+00  0.00000000E+00  0.00000000E+00  0.00000000E+00  0.00000000E+00
 -1.00668285E-01  5.70920775E-02  0.00000000E+00  0.00000000E+00 -2.17457910E-01
  1.41313961E+00  0.00000000E+00  0.00000000E+00 -5.08155523E-01 -7.15279305E-02
 -5.60163813E-02 -4.32344119E-02  0.00000000E+00  0.00000000E+00  0.00000000E+00
 -5.54790200E-02 -1.04047419E+00 -5.54790200E-02 -1.04047419E+00  0.00000000E+00
  0.00000000E+00  0.00000000E+00 -3.29589062E-01  0.00000000E+00  0.00000000E+00
  0.00000000E+00 -8.33419280E-01  0.00000000E+00  0.00000000E+00  0.00000000E+00
  0.00000000E+00  0.00000000E+00  0.00000000E+00  2.24709452E-02  5.01859717E-02
  1.39242674E+00 -5.01859717E-02 -1.39242674E+00  0.00000000E+00  0.00000000E+00
  0.00000000E+00 -9.71092288E-02  0.00000000E+00  0.00000000E+00  0.00000000E+00
 -6.58165879E-01  0.00000000E+00  0.00000000E+00  0.00000000E+00  0.00000000E+00
  0.00000000E+00  0.00000000E+00 -1.98405157E-01  8.39084636E-01 -4.62421062E-01
 -8.39084636E-01  4.62421062E-01  4.51455426E-03 -9.19531657E-01  0.00000000E+00
  0.00000000E+00 -4.02600796E-01  1.62787875E+00  0.00000000E+00  0.00000000E+00
  6.99089920E-01 -3.88346376E-01 -1.78640873E-01 -3.16114463E-01  0.00000000E+00
  0.00000000E+00  0.00000000E+00  5.62875644E-01 -4.82872006E-01  5.62875644E-01
 -4.82872006E-01  0.00000000E+00  0.00000000E+00 -9.62729051E-01  0.00000000E+00
  0.00000000E+00  0.00000000E+00  1.03606113E+00  0.00000000E+00  0.00000000E+00
  0.00000000E+00  0.00000000E+00  0.00000000E+00  0.00000000E+00 -1.44866167E-02
  0.00000000E+00  0.00000000E+00  0.00000000E+00  0.00000000E+00  0.00000000E+00
  4.97053848E-02  1.20078916E-01  0.00000000E+00  0.00000000E+00  7.69033344E-01
 -5.02039586E-01  0.00000000E+00  0.00000000E+00 -3.85435261E-01 -4.83995240E-02
  2.53750725E-01  9.23531122E-02  0.00000000E+00  0.00000000E+00  0.00000000E+00
  6.49165141E-01 -3.46844466E-01  6.49165141E-01 -3.46844466E-01  0.00000000E+00
  0.00000000E+00  0.00000000E+00 -1.03709790E+00  0.00000000E+00  0.00000000E+00
  0.00000000E+00  1.53774524E+00  0.00000000E+00  0.00000000E+00  0.00000000E+00
  0.00000000E+00  0.00000000E+00  0.00000000E+00 -1.77369079E-02  9.69601459E-02
 -9.12555002E-01 -9.69601459E-02  9.12555002E-01 -8.57595225E-02 -1.41750431E+00
  0.00000000E+00  0.00000000E+00  5.07663087E-01  3.56935308E+00  0.00000000E+00
  0.00000000E+00 -1.17373805E+00 -2.77236485E-01 -6.44223205E-01 -4.01991359E-01
  0.00000000E+00  0.00000000E+00  0.00000000E+00 -3.22256144E-01 -7.83508071E-01
 -3.22256144E-01 -7.83508071E-01  7.22559830E-03  7.75667182E-02  0.00000000E+00
  0.00000000E+00 -4.91303757E-03 -2.26918037E-01  0.00000000E+00  0.00000000E+00
  1.29335536E-01 -3.68050530E-01 -5.79501960E-01  1.00902095E+00  0.00000000E+00
  0.00000000E+00  0.00000000E+00  7.71954704E-02  3.62705007E-02  7.71954704E-02
  3.62705007E-02  0.00000000E+00  0.00000000E+00  0.00000000E+00  0.00000000E+00
  0.00000000E+00  0.00000000E+00  0.00000000E+00  0.00000000E+00  0.00000000E+00
  0.00000000E+00  0.00000000E+00  0.00000000E+00  1.00000000E+00  0.00000000E+00
  0.00000000E+00  0.00000000E+00  0.00000000E+00  0.00000000E+00  0.00000000E+00
  0.00000000E+00  0.00000000E+00  7.71423395E-03  0.00000000E+00  0.00000000E+00
  0.00000000E+00  3.23465124E-02  0.00000000E+00  0.00000000E+00  0.00000000E+00
  0.00000000E+00  0.00000000E+00  0.00000000E+00  9.99321723E-01  0.00000000E+00
  0.00000000E+00  0.00000000E+00  0.00000000E+00  0.00000000E+00 -5.73632034E-02
 -4.88597165E-01  0.00000000E+00  0.00000000E+00  4.79609903E-02  1.56522852E+00
  0.00000000E+00  0.00000000E+00 -7.37868625E-01 -1.13356103E+00  7.53222198E-01
  3.74760053E-02  0.00000000E+00  0.00000000E+00  0.00000000E+00 -8.39752787E-01
 -1.41112482E-01 -8.39752787E-01 -1.41112482E-01  0.00000000E+00  0.00000000E+00
  0.00000000E+00  1.88742794E-02  0.00000000E+00  0.00000000E+00  0.00000000E+00
 -8.65263923E-01  0.00000000E+00  0.00000000E+00  0.00000000E+00  0.00000000E+00
  0.00000000E+00  0.00000000E+00  1.28330985E+00  9.51673033E-01 -3.82437336E-02
 -9.51673033E-01  3.82437336E-02 -4.65748925E-01  3.27062725E-01  0.00000000E+00
  0.00000000E+00  1.15990032E-01  3.62154268E+00  0.00000000E+00  0.00000000E+00
 -3.17588132E-01 -1.56103046E+00 -1.52607993E+00 -1.54312306E+00  0.00000000E+00
  0.00000000E+00  0.00000000E+00  1.28395426E-01 -5.45190934E-01  1.28395426E-01
 -5.45190934E-01
Total SCF Density                          R   N=         190
  2.07731362E+00 -1.81663497E-01  5.07955060E-01  0.00000000E+00  0.00000000E+00
  8.18279317E-01  0.00000000E+00  0.00000000E+00  1.85662526E-17  5.15059387E-01
 -4.50878761E-02  9.41678621E-02  0.00000000E+00  0.00000000E+00  6.34010202E-01
 -2.23985188E-01  5.25694011E-01  0.00000000E+00  0.00000000E+00  2.79539042E-01
  5.98354187E-01  0.00000000E+00  0.00000000E+00  6.54283432E-01  2.10041225E-17
  0.00000000E+00  0.00000000E+00  5.23154870E-01  0.00000000E+00  0.00000000E+00
  2.10041225E-17  3.11248751E-01  0.00000000E+00  0.00000000E+00  2.05163347E-17
  1.88086631E-01 -3.68884736E-02  8.43623700E-02  0.00000000E+00  0.00000000E+00
  4.57395255E-01  2.17745763E-01  0.00000000E+00  0.00000000E+00  3.30526895E-01
 -8.99698643E-03  2.54779209E-03  0.00000000E+00  0.00000000E+00  1.33809252E-02
  6.57614618E-03  0.00000000E+00  0.00000000E+00  9.66637715E-03  3.13644442E-04
 -1.94279634E-02  2.49731888E-02  0.00000000E+00  0.00000000E+00 -4.70556618E-03
  2.32612937E-02  0.00000000E+00  0.00000000E+00 -2.54876429E-03 -2.85810868E-05
  1.42570622E-03 -1.02672023E-02  4.92301130E-03  0.00000000E+00  0.00000000E+00
 -5.53744682E-02 -1.13732511E-02  0.00000000E+00  0.00000000E+00 -3.95186141E-02
 -1.11653959E-03  1.14491107E-03  5.23165871E-03  7.37498038E-19 -1.58553567E-18
  0.00000000E+00  0.00000000E+00  1.27876343E-18 -1.17968466E-18  0.00000000E+00
  0.00000000E+00  8.63643246E-19  2.41962624E-20 -1.02822011E-19 -1.59890624E-19
  1.79610649E-35  0.00000000E+00  0.00000000E+00 -4.33113766E-02  5.24796672E-19
  0.00000000E+00  0.00000000E+00 -3.46311040E-02 -2.00763888E-19  0.00000000E+00
  0.00000000E+00  0.00000000E+00  0.00000000E+00  0.00000000E+00  2.29246335E-03
  0.00000000E+00  0.00000000E+00  5.24796672E-19 -5.18822398E-02  0.00000000E+00
  0.00000000E+00 -2.00763888E-19 -3.13522726E-02  0.00000000E+00  0.00000000E+00
  0.00000000E+00  0.00000000E+00  0.00000000E+00 -1.79629280E-19  5.22612900E-03
 -3.34823251E-02  7.80202194E-02 -1.43477764E-17  2.34324710E-01 -1.81325050E-01
  2.30728984E-02 -8.67031571E-18  1.41601678E-01 -1.27330242E-01 -3.67195890E-03
  6.84904497E-03  1.86740412E-02 -7.43863178E-19  1.44526009E-18 -2.36036680E-02
  1.80804649E-01  1.13499686E-02 -2.63272602E-02 -6.89388128E-18  1.12589344E-01
 -9.57408616E-02 -5.40839190E-02 -4.16595055E-18  6.80373826E-02 -6.94729550E-02
 -2.03535262E-03  8.00183526E-05  8.03856205E-03 -1.49562399E-19  6.94424779E-19
 -1.13411918E-02  7.60302665E-02  3.93659036E-02 -3.34823251E-02  7.80202194E-02
  1.43477764E-17 -2.34324710E-01 -1.81325050E-01  2.30728984E-02  8.67031571E-18
 -1.41601678E-01 -1.27330242E-01 -3.67195890E-03  6.84904497E-03  1.86740412E-02
 -7.43863178E-19 -1.44526009E-18  2.36036680E-02 -3.24059863E-02 -2.64140959E-02
  1.80804649E-01  1.13499686E-02 -2.63272602E-02  6.89388128E-18 -1.12589344E-01
 -9.57408616E-02 -5.40839190E-02  4.16595055E-18 -6.80373826E-02 -6.94729550E-02
 -2.03535262E-03  8.00183526E-05  8.03856205E-03 -1.49562399E-19 -6.94424779E-19
  1.13411918E-02 -2.64140959E-02 -9.85700390E-03  7.60302665E-02  3.93659036E-02
Cartesian Gradient                         R   N=           9
  0.00000000E+00  0.00000000E+00  0.00000000E+00  0.00000000E+00  0.00000000E+00
  0.00000000E+00  0.00000000E+00  0.00000000E+00  0.00000000E+00
Dipole Moment                              R   N=           3
 -7.21476655E-17 -2.26588196E-17 -8.75090158E-01
